# vtk DataFile Version 2.0
Written using VisIt writer
ASCII
DATASET RECTILINEAR_GRID
DIMENSIONS 11 11 2
X_COORDINATES 11 double
 -1.000000000000e+01  -8.000000000000e+00  -6.000000000000e+00  -4.000000000000e+00  -2.000000000000e+00   0.000000000000e+00   2.000000000000e+00   4.000000000000e+00   6.000000000000e+00 
  8.000000000000e+00   1.000000000000e+01 
Y_COORDINATES 11 double
 -1.000000000000e+01  -8.000000000000e+00  -6.000000000000e+00  -4.000000000000e+00  -2.000000000000e+00   0.000000000000e+00   2.000000000000e+00   4.000000000000e+00   6.000000000000e+00 
  8.000000000000e+00   1.000000000000e+01 
Z_COORDINATES 2 double
  0.000000000000e+00   0.000000000000e+00 
CELL_DATA 100
VECTORS velocity double
  1.764052345968e+00   4.001572083672e-01   9.787379841057e-01   2.240893199201e+00   1.867557990150e+00  -9.772778798764e-01   9.500884175256e-01  -1.513572082977e-01  -1.032188517936e-01 
  4.105985019384e-01   1.440435711609e-01   1.454273506963e+00   7.610377251470e-01   1.216750164928e-01   4.438632327454e-01   3.336743273743e-01   1.494079073158e+00  -2.051582637658e-01 
  3.130677016509e-01  -8.540957393017e-01  -2.552989815834e+00   6.536185954404e-01   8.644361988595e-01  -7.421650204064e-01   2.269754623988e+00  -1.454365674599e+00   4.575851730145e-02 
 -1.871838500258e-01   1.532779214358e+00   1.469358769900e+00   1.549474256969e-01   3.781625196022e-01  -8.877857476301e-01  -1.980796468224e+00  -3.479121493262e-01   1.563489691040e-01 
  1.230290680728e+00   1.202379848784e+00  -3.873268174080e-01  -3.023027505753e-01  -1.048552965067e+00  -1.420017937179e+00  -1.706270190625e+00   1.950775395232e+00  -5.096521817517e-01 
 -4.380743016112e-01  -1.252795360050e+00   7.774903558319e-01  -1.613897847558e+00  -2.127402802140e-01  -8.954665611937e-01   3.869024978593e-01  -5.108051375689e-01  -1.180632184122e+00 
 -2.818222833865e-02   4.283318705304e-01   6.651722238317e-02   3.024718977398e-01  -6.343220936810e-01  -3.627411659871e-01  -6.724604477760e-01  -3.595531615405e-01  -8.131462820445e-01 
 -1.726282602332e+00   1.774261422538e-01  -4.017809362083e-01  -1.630198346966e+00   4.627822555258e-01  -9.072983643832e-01   5.194539579614e-02   7.290905621775e-01   1.289829107574e-01 
  1.139400684543e+00  -1.234825820354e+00   4.023416411775e-01  -6.848100909403e-01  -8.707971491819e-01  -5.788496647644e-01  -3.115525321274e-01   5.616534222975e-02  -1.165149840783e+00 
  9.008264869542e-01   4.656624397305e-01  -1.536243686277e+00   1.488252193796e+00   1.895889176031e+00   1.178779571160e+00  -1.799248358124e-01  -1.070752621511e+00   1.054451726931e+00 
 -4.031769469732e-01   1.222445070382e+00   2.082749780769e-01   9.766390364837e-01   3.563663971744e-01   7.065731681919e-01   1.050002072082e-02   1.785870493906e+00   1.269120927036e-01 
  4.019893634447e-01   1.883150697056e+00  -1.347759061142e+00  -1.270484998486e+00   9.693967081580e-01  -1.173123405114e+00   1.943621185649e+00  -4.136189807597e-01  -7.474548114408e-01 
  1.922942026480e+00   1.480514791434e+00   1.867558960427e+00   9.060446582754e-01  -8.612256850547e-01   1.910064953099e+00  -2.680033709514e-01   8.024563957964e-01   9.472519677737e-01 
 -1.550100930908e-01   6.140793703461e-01   9.222066715665e-01   3.764255311556e-01  -1.099400790584e+00   2.982381742061e-01   1.326385896687e+00  -6.945678597314e-01  -1.496345403277e-01 
 -4.351535517216e-01   1.849263728479e+00   6.722947570124e-01   4.074618362411e-01  -7.699160744453e-01   5.392491912918e-01  -6.743326606574e-01   3.183055827435e-02  -6.358460783789e-01 
  6.764332949465e-01   5.765908166149e-01  -2.082987555780e-01   3.960067126616e-01  -1.093061508731e+00  -1.491257592706e+00   4.393917012645e-01   1.666734953725e-01   6.350314368921e-01 
  2.383144774864e+00   9.444794869904e-01  -9.128222254442e-01   1.117016288096e+00  -1.315907410512e+00  -4.615846048147e-01  -6.824160532463e-02   1.713342721649e+00  -7.447548220484e-01 
 -8.264385386590e-01  -9.845252442543e-02  -6.634782863621e-01   1.126635922107e+00  -1.079931508363e+00  -1.147468652411e+00  -4.378200447444e-01  -4.980324506923e-01   1.929532053817e+00 
  9.494208069258e-01   8.755124138519e-02  -1.225435518830e+00   8.443629764015e-01  -1.000215347390e+00  -1.544771096778e+00   1.188029792352e+00   3.169426119248e-01   9.208588237808e-01 
  3.187276529430e-01   8.568306119027e-01  -6.510255933001e-01  -1.034242841784e+00   6.815945182816e-01  -8.034096641738e-01  -6.895497777502e-01  -4.555325035173e-01   1.747915902506e-02 
 -3.539939112535e-01  -1.374951293418e+00  -6.436184028329e-01  -2.223403152224e+00   6.252314510272e-01  -1.602057655607e+00  -1.104383339428e+00   5.216507926097e-02  -7.395629963913e-01 
  1.543014595407e+00  -1.292856909723e+00   2.670508693492e-01  -3.928281822750e-02  -1.168093497741e+00   5.232766605318e-01  -1.715463312222e-01   7.717905512137e-01   8.235041539637e-01 
  2.163235949281e+00   1.336527949436e+00  -3.691818379424e-01  -2.393791775759e-01   1.099659595887e+00   6.552637307226e-01   6.401315260976e-01  -1.616956044311e+00  -2.432612439894e-02 
 -7.380309092057e-01   2.799245990432e-01  -9.815038964296e-02   9.101789080926e-01   3.172182151913e-01   7.863279621090e-01  -4.664190967359e-01  -9.444462559183e-01  -4.100496932025e-01 
 -1.702041386144e-02   3.791517355551e-01   2.259308950691e+00  -4.225715166064e-02  -9.559450004928e-01  -3.459817756994e-01  -4.635959746461e-01   4.814814737735e-01  -1.540797014445e+00 
  6.326199420033e-02   1.565065379654e-01   2.321810362003e-01  -5.973160689654e-01  -2.379217297360e-01  -1.424060908983e+00  -4.933198833622e-01  -5.428614760167e-01   4.160500462614e-01 
 -1.156182431822e+00   7.811981017100e-01   1.494484544491e+00  -2.069985025014e+00   4.262587307781e-01   6.769080350302e-01  -6.374370255522e-01  -3.972718143288e-01  -1.328805775870e-01 
 -2.977908794017e-01  -3.090129690471e-01  -1.676003806330e+00   1.152331564783e+00   1.079618592037e+00  -8.133642592042e-01  -1.466424327803e+00   5.210648764528e-01  -5.757879698131e-01 
  1.419531633208e-01  -3.193284171451e-01   6.915387510702e-01   6.947491436560e-01  -7.255973784636e-01  -1.383363955395e+00  -1.582938397335e+00   6.103793791072e-01  -1.188859257784e+00 
 -5.068163542987e-01  -5.963140384505e-01  -5.256729626955e-02  -1.936279805847e+00   1.887785967938e-01   5.238910238342e-01   8.842208704466e-02  -3.108861716985e-01   9.740016626878e-02 
  3.990463456401e-01  -2.772592756427e+00   1.955912308251e+00   3.900933226879e-01  -6.524085823870e-01  -3.909533751876e-01   4.937417773492e-01  -1.161039390344e-01  -2.030684467781e+00 
  2.064492861359e+00  -1.105406572325e-01   1.020172711716e+00  -6.920498477844e-01   1.536377054246e+00   2.863436888923e-01   6.088438344755e-01  -1.045253366147e+00   1.211145289683e+00 
  6.898181645348e-01   1.301846229565e+00  -6.280875596416e-01  -4.810271184608e-01   2.303916697684e+00  -1.060015822722e+00  -1.359497006783e-01   1.136891362603e+00   9.772496771486e-02 
  5.829536797533e-01  -3.994490292629e-01   3.700558878475e-01 
POINT_DATA 242

