# vtk DataFile Version 2.0
Written using VisIt writer
ASCII
DATASET RECTILINEAR_GRID
DIMENSIONS 21 21 2
X_COORDINATES 21 double
 -1.000000000000e+01  -9.000000000000e+00  -8.000000000000e+00  -7.000000000000e+00  -6.000000000000e+00  -5.000000000000e+00  -4.000000000000e+00  -3.000000000000e+00  -2.000000000000e+00 
 -1.000000000000e+00   0.000000000000e+00   1.000000000000e+00   2.000000000000e+00   3.000000000000e+00   4.000000000000e+00   5.000000000000e+00   6.000000000000e+00   7.000000000000e+00 
  8.000000000000e+00   9.000000000000e+00   1.000000000000e+01 
Y_COORDINATES 21 double
 -1.000000000000e+01  -9.000000000000e+00  -8.000000000000e+00  -7.000000000000e+00  -6.000000000000e+00  -5.000000000000e+00  -4.000000000000e+00  -3.000000000000e+00  -2.000000000000e+00 
 -1.000000000000e+00   0.000000000000e+00   1.000000000000e+00   2.000000000000e+00   3.000000000000e+00   4.000000000000e+00   5.000000000000e+00   6.000000000000e+00   7.000000000000e+00 
  8.000000000000e+00   9.000000000000e+00   1.000000000000e+01 
Z_COORDINATES 2 double
  3.000000000000e+00   3.000000000000e+00 
CELL_DATA 400
VECTORS velocity double
 -9.206037734625e-08  -2.762257540129e-07  -4.000395186703e-02   6.376667193627e-10  -3.129748078601e-07  -4.216988896078e-02   1.622430140779e-07  -2.849147062285e-07  -4.442284180601e-02 
  3.888748912948e-07  -1.300967537688e-07  -4.672187590125e-02   6.299399993284e-07   2.124788202464e-07  -4.900519475501e-02   7.685672170280e-07   7.471172311007e-07  -5.118726081655e-02 
  6.494576309483e-07   1.341011827165e-06  -5.315965117506e-02   1.909090038770e-07   1.693212765529e-06  -5.479831253459e-02  -4.687197442529e-07   1.468035459128e-06  -5.597886672027e-02 
 -9.659368437701e-07   5.873053299344e-07  -5.659849366261e-02  -9.659368437742e-07  -5.873053297768e-07  -5.659849366261e-02  -4.687197442652e-07  -1.468035458966e-06  -5.597886672027e-02 
  1.909090038587e-07  -1.693212765385e-06  -5.479831253459e-02   6.494576309248e-07  -1.341011827028e-06  -5.315965117506e-02   7.685672170042e-07  -7.471172309741e-07  -5.118726081655e-02 
  6.299399992986e-07  -2.124788201282e-07  -4.900519475501e-02   3.888748912655e-07   1.300967538769e-07  -4.672187590125e-02   1.622430140509e-07   2.849147063285e-07  -4.442284180601e-02 
  6.376666917549e-10   3.129748079492e-07  -4.216988896078e-02  -9.206037737307e-08   2.762257540955e-07  -4.000395186703e-02  -2.340843527859e-07  -3.656670145533e-07  -4.216988896080e-02 
 -1.603914594978e-07  -4.812711382511e-07  -4.473060012784e-02   2.766647235537e-08  -5.471709386596e-07  -4.744716022092e-02   3.668816741210e-07  -4.571441627364e-07  -5.027997765759e-02 
  8.305687946390e-07  -5.718546965209e-08  -5.315965117463e-02   1.249242627348e-06   7.734525040555e-07  -5.597886672020e-02   1.285825437152e-06   1.924499389045e-06  -5.858860075057e-02 
  6.234163157021e-07   2.849135446324e-06  -6.080456491909e-02  -6.129397426186e-07   2.713320377376e-06  -6.242964366608e-02  -1.650814596606e-06   1.136088079413e-06  -6.329261572235e-02 
 -1.650814596611e-06  -1.136088079236e-06  -6.329261572235e-02  -6.129397426343e-07  -2.713320377208e-06  -6.242964366608e-02   6.234163156829e-07  -2.849135446163e-06  -6.080456491909e-02 
  1.285825437123e-06  -1.924499388899e-06  -5.858860075057e-02   1.249242627315e-06  -7.734525039164e-07  -5.597886672020e-02   8.305687946067e-07   5.718546977698e-08  -5.315965117463e-02 
  3.668816740889e-07   4.571441628492e-07  -5.027997765759e-02   2.766647232313e-08   5.471709387629e-07  -4.744716022092e-02  -1.603914595293e-07   4.812711383425e-07  -4.473060012784e-02 
 -2.340843528150e-07   3.656670146377e-07  -4.216988896080e-02  -4.388189848891e-07  -4.248617647565e-07  -4.442284180608e-02  -4.442322913046e-07  -6.533935627742e-07  -4.744716022101e-02 
 -2.994847999888e-07  -8.986852596820e-07  -5.072753512215e-02   1.190932961247e-07  -1.021578766564e-06  -5.423537162115e-02   9.000212817922e-07  -7.233859000667e-07  -5.790209158627e-02 
  1.902000739558e-06   4.135466097888e-07  -6.160103388834e-02   2.502381496227e-06   2.557675328774e-06  -6.513166706093e-02   1.731170351666e-06   4.882422270287e-06  -6.821791052580e-02 
 -6.521002214700e-07   5.329640769097e-06  -7.053707191451e-02  -2.997927351003e-06   2.381600585051e-06  -7.178901067344e-02  -2.997927351012e-06  -2.381600584854e-06  -7.178901067344e-02 
 -6.521002214886e-07  -5.329640768902e-06  -7.053707191451e-02   1.731170351638e-06  -4.882422270106e-06  -6.821791052580e-02   2.502381496193e-06  -2.557675328608e-06  -6.513166706093e-02 
  1.902000739521e-06  -4.135466096400e-07  -6.160103388834e-02   9.000212817567e-07   7.233859001959e-07  -5.790209158627e-02   1.190932960876e-07   1.021578766686e-06  -5.423537162115e-02 
 -2.994848000209e-07   8.986852597885e-07  -5.072753512215e-02  -4.442322913364e-07   6.533935628703e-07  -4.744716022101e-02  -4.388189849212e-07   4.248617648384e-07  -4.442284180608e-02 
 -6.825935204801e-07  -3.990387395898e-07  -4.672187590137e-02  -8.613980111837e-07  -7.470266423499e-07  -5.027997765785e-02  -9.196660034764e-07  -1.256326865851e-06  -5.423537162155e-02 
 -6.112483372639e-07  -1.834367428845e-06  -5.858860075006e-02   4.391767756118e-07  -2.066961433699e-06  -6.329261572250e-02   2.452869634706e-06  -9.818653700000e-07  -6.821791051849e-02 
  4.662561387537e-06   2.641479652077e-06  -7.311006479075e-02   4.565361410079e-06   8.314547629003e-06  -7.755870549511e-02  -2.960771992130e-08   1.122353262662e-05  -8.101917170982e-02 
 -5.864901523820e-06   5.529878233102e-06  -8.293262607041e-02  -5.864901523831e-06  -5.529878232868e-06  -8.293262607041e-02  -2.960771994437e-08  -1.122353262641e-05  -8.101917170982e-02 
  4.565361410041e-06  -8.314547628802e-06  -7.755870549511e-02   4.662561387495e-06  -2.641479651893e-06  -7.311006479075e-02   2.452869634663e-06   9.818653701528e-07  -6.821791051849e-02 
  4.391767755665e-07   2.066961433839e-06  -6.329261572250e-02  -6.112483373031e-07   1.834367428966e-06  -5.858860075006e-02  -9.196660035119e-07   1.256326865960e-06  -5.423537162155e-02 
 -8.613980112163e-07   7.470266424492e-07  -5.027997765785e-02  -6.825935205085e-07   3.990387396774e-07  -4.672187590137e-02  -8.843586647803e-07  -2.233546642800e-07  -4.900519475511e-02 
 -1.332347307262e-06  -6.219357205567e-07  -5.315965117505e-02  -1.844905933676e-06  -1.384624048068e-06  -5.790209158752e-02  -2.131452576680e-06  -2.651462067825e-06  -6.329261572493e-02 
 -1.404511516354e-06  -4.215506899751e-06  -6.934842487363e-02   1.691344944026e-06  -4.606182313918e-06  -7.598684707648e-02   7.638378648506e-06  -2.966184473693e-09  -8.293262606744e-02 
  1.169627374807e-05   1.301592172525e-05  -8.960457545521e-02   3.711193000124e-06   2.547438613759e-05  -9.506505988372e-02  -1.256993176700e-05   1.468035414141e-05  -9.819825098108e-02 
 -1.256993176701e-05  -1.468035414115e-05  -9.819825098108e-02   3.711193000089e-06  -2.547438613734e-05  -9.506505988372e-02   1.169627374802e-05  -1.301592172503e-05  -8.960457545521e-02 
  7.638378648457e-06   2.966184670902e-09  -8.293262606744e-02   1.691344943980e-06   4.606182314083e-06  -7.598684707648e-02  -1.404511516402e-06   4.215506899894e-06  -6.934842487363e-02 
 -2.131452576719e-06   2.651462067949e-06  -6.329261572493e-02  -1.844905933714e-06   1.384624048175e-06  -5.790209158752e-02  -1.332347307296e-06   6.219357206535e-07  -5.315965117505e-02 
 -8.843586648110e-07   2.233546643657e-07  -4.900519475511e-02  -8.922101102051e-07   1.330707912668e-07  -5.118726081646e-02  -1.608274787803e-06  -1.338642175379e-07  -5.597886672034e-02 
 -2.774539591977e-06  -8.871324247539e-07  -6.160103388990e-02  -4.401530721585e-06  -2.688954159931e-06  -6.821791052571e-02  -5.748545756451e-06  -6.315204251735e-06  -7.598684709650e-02 
 -3.808145724191e-06  -1.143224724941e-05  -8.498837753051e-02   7.618817707496e-06  -1.135401001129e-05  -9.506505964003e-02   2.773048577951e-05   1.300142883196e-05  -1.055226040731e-01 
  2.180907048124e-05   6.150618931395e-05  -1.147751499695e-01  -2.999138858302e-05   4.675639604235e-05  -1.204177782185e-01  -2.999138858304e-05  -4.675639604202e-05  -1.204177782185e-01 
  2.180907048120e-05  -6.150618931365e-05  -1.147751499695e-01   2.773048577945e-05  -1.300142883171e-05  -1.055226040731e-01   7.618817707437e-06   1.135401001149e-05  -9.506505964003e-02 
 -3.808145724244e-06   1.143224724959e-05  -8.498837753051e-02  -5.748545756508e-06   6.315204251881e-06  -7.598684709650e-02  -4.401530721625e-06   2.688954160054e-06  -6.821791052571e-02 
 -2.774539592013e-06   8.871324248638e-07  -6.160103388990e-02  -1.608274787833e-06   1.338642176346e-07  -5.597886672034e-02  -8.922101102301e-07  -1.330707911814e-07  -5.118726081646e-02 
 -5.299677239473e-07   5.950582871816e-07  -5.315965117461e-02  -1.275595518484e-06   7.020455174109e-07  -5.858860074955e-02  -2.862859984144e-06   5.273057890303e-07  -6.513166705941e-02 
 -6.097628551009e-06  -7.062950582989e-07  -7.311006479429e-02  -1.197150995663e-05  -5.188133445429e-06  -8.293262611747e-02  -1.916988347415e-05  -1.762574411596e-05  -9.506505989163e-02 
 -1.321868778756e-05  -3.969882058037e-05  -1.098577935275e-01   4.550453524023e-05  -2.726267856468e-05  -1.269834061342e-01   1.067557635434e-04   1.421031597208e-04  -1.441511658360e-01 
 -7.832469310549e-05   1.927206654153e-04  -1.558320070714e-01  -7.832469310553e-05  -1.927206654149e-04  -1.558320070714e-01   1.067557635433e-04  -1.421031597204e-04  -1.441511658360e-01 
  4.550453524016e-05   2.726267856496e-05  -1.269834061342e-01  -1.321868778763e-05   3.969882058059e-05  -1.098577935275e-01  -1.916988347421e-05   1.762574411613e-05  -9.506505989163e-02 
 -1.197150995669e-05   5.188133445575e-06  -8.293262611747e-02  -6.097628551046e-06   7.062950584220e-07  -7.311006479429e-02  -2.862859984176e-06  -5.273057889261e-07  -6.513166705941e-02 
 -1.275595518507e-06  -7.020455173183e-07  -5.858860074955e-02  -5.299677239676e-07  -5.950582870989e-07  -5.315965117461e-02   2.616593169667e-07   9.407787428025e-07  -5.479831253402e-02 
 -1.570595491987e-08   1.512041564850e-06  -6.080456491705e-02  -1.005790256727e-06   2.395404802189e-06  -6.821791051840e-02  -4.069239530917e-06   3.472315340130e-06  -7.755870546945e-02 
 -1.303002593979e-05   3.248637853511e-06  -8.960457539442e-02  -3.735237965199e-05  -6.536985422189e-06  -1.055226043572e-01  -8.720413744783e-05  -5.966569898321e-05  -1.269834118396e-01 
 -6.886914969929e-05  -2.069905263667e-04  -1.558320106832e-01   4.250653643706e-04   9.209643346342e-05  -1.913858556059e-01  -1.414143790335e-04   1.151522752468e-03  -2.215450848045e-01 
 -1.414143790336e-04  -1.151522752468e-03  -2.215450848045e-01   4.250653643705e-04  -9.209643346299e-05  -1.913858556059e-01  -6.886914969938e-05   2.069905263670e-04  -1.558320106832e-01 
 -8.720413744789e-05   5.966569898344e-05  -1.269834118396e-01  -3.735237965204e-05   6.536985422365e-06  -1.055226043572e-01  -1.303002593984e-05  -3.248637853368e-06  -8.960457539442e-02 
 -4.069239530948e-06  -3.472315340011e-06  -7.755870546945e-02  -1.005790256754e-06  -2.395404802086e-06  -6.821791051840e-02  -1.570595494077e-08  -1.512041564758e-06  -6.080456491705e-02 
  2.616593169516e-07  -9.407787427196e-07  -5.479831253402e-02   1.259229131480e-06   8.960016889256e-07  -5.597886672027e-02   1.893979831196e-06   1.637183400708e-06  -6.242964366559e-02 
  2.802597632054e-06   3.161071950921e-06  -7.053707191033e-02   3.742692598514e-06   6.474680467281e-06  -8.101917167923e-02   2.656981383437e-06   1.397620698934e-05  -9.506505964793e-02 
 -1.267592576232e-05   3.019255073537e-05  -1.147751480008e-01  -1.114324331244e-04   4.628804929367e-05  -1.441511526359e-01  -6.195976411815e-04  -1.978878968819e-04  -1.913860961371e-01 
 -7.649434710655e-04  -2.298815301925e-03  -2.724125410589e-01   3.395308383818e-03   9.581650541793e-03  -3.862480643649e-01   3.395308383817e-03  -9.581650541793e-03  -3.862480643649e-01 
 -7.649434710657e-04   2.298815301925e-03  -2.724125410589e-01  -6.195976411816e-04   1.978878968822e-04  -1.913860961371e-01  -1.114324331244e-04  -4.628804929346e-05  -1.441511526359e-01 
 -1.267592576235e-05  -3.019255073520e-05  -1.147751480008e-01   2.656981383411e-06  -1.397620698920e-05  -9.506505964793e-02   3.742692598490e-06  -6.474680467159e-06  -8.101917167923e-02 
  2.802597632043e-06  -3.161071950819e-06  -7.053707191033e-02   1.893979831184e-06  -1.637183400617e-06  -6.242964366559e-02   1.259229131472e-06  -8.960016888441e-07  -5.597886672027e-02 
  1.973632621022e-06   3.721725506060e-07  -5.659849366345e-02   3.391969093030e-06   7.191715433620e-07  -6.329261572508e-02   6.210682502885e-06   1.505323509033e-06  -7.178901068358e-02 
  1.230614376029e-05   3.487236591004e-06  -8.293262611450e-02   2.695204407244e-05   9.223502196044e-06  -9.819825121278e-02   6.706417809288e-05   2.918404173728e-05  -1.204177796855e-01 
  1.944656393388e-04   1.186725695625e-04  -1.558320142950e-01   6.053093187069e-04   6.837233375817e-04  -2.215444746410e-01  -1.956833853006e-03   4.650321466470e-03  -3.860830048937e-01 
 -2.400971706954e-02   5.068189616752e-03  -7.510389515185e-01  -2.400971706954e-02  -5.068189616751e-03  -7.510389515185e-01  -1.956833853006e-03  -4.650321466469e-03  -3.860830048937e-01 
  6.053093187069e-04  -6.837233375815e-04  -2.215444746410e-01   1.944656393388e-04  -1.186725695623e-04  -1.558320142950e-01   6.706417809288e-05  -2.918404173711e-05  -1.204177796855e-01 
  2.695204407244e-05  -9.223502195909e-06  -9.819825121278e-02   1.230614376028e-05  -3.487236590892e-06  -8.293262611450e-02   6.210682502885e-06  -1.505323508930e-06  -7.178901068358e-02 
  3.391969093027e-06  -7.191715432727e-07  -6.329261572508e-02   1.973632621019e-06  -3.721725505254e-07  -5.659849366345e-02   1.973632621020e-06  -3.721725505295e-07  -5.659849366345e-02 
  3.391969093020e-06  -7.191715432751e-07  -6.329261572508e-02   6.210682502876e-06  -1.505323508935e-06  -7.178901068358e-02   1.230614376028e-05  -3.487236590894e-06  -8.293262611450e-02 
  2.695204407243e-05  -9.223502195916e-06  -9.819825121278e-02   6.706417809287e-05  -2.918404173712e-05  -1.204177796855e-01   1.944656393388e-04  -1.186725695623e-04  -1.558320142950e-01 
  6.053093187068e-04  -6.837233375815e-04  -2.215444746410e-01  -1.956833853006e-03  -4.650321466469e-03  -3.860830048937e-01  -2.400971706954e-02  -5.068189616751e-03  -7.510389515185e-01 
 -2.400971706954e-02   5.068189616753e-03  -7.510389515185e-01  -1.956833853006e-03   4.650321466470e-03  -3.860830048937e-01   6.053093187069e-04   6.837233375818e-04  -2.215444746410e-01 
  1.944656393388e-04   1.186725695625e-04  -1.558320142950e-01   6.706417809290e-05   2.918404173729e-05  -1.204177796855e-01   2.695204407245e-05   9.223502196053e-06  -9.819825121278e-02 
  1.230614376029e-05   3.487236591011e-06  -8.293262611450e-02   6.210682502892e-06   1.505323509036e-06  -7.178901068358e-02   3.391969093032e-06   7.191715433650e-07  -6.329261572508e-02 
  1.973632621023e-06   3.721725506068e-07  -5.659849366345e-02   1.259229131467e-06  -8.960016888456e-07  -5.597886672027e-02   1.893979831180e-06  -1.637183400620e-06  -6.242964366559e-02 
  2.802597632034e-06  -3.161071950821e-06  -7.053707191033e-02   3.742692598489e-06  -6.474680467166e-06  -8.101917167923e-02   2.656981383397e-06  -1.397620698921e-05  -9.506505964793e-02 
 -1.267592576237e-05  -3.019255073521e-05  -1.147751480008e-01  -1.114324331244e-04  -4.628804929346e-05  -1.441511526359e-01  -6.195976411816e-04   1.978878968822e-04  -1.913860961371e-01 
 -7.649434710658e-04   2.298815301925e-03  -2.724125410589e-01   3.395308383817e-03  -9.581650541793e-03  -3.862480643649e-01   3.395308383817e-03   9.581650541794e-03  -3.862480643649e-01 
 -7.649434710655e-04  -2.298815301925e-03  -2.724125410589e-01  -6.195976411815e-04  -1.978878968819e-04  -1.913860961371e-01  -1.114324331243e-04   4.628804929371e-05  -1.441511526359e-01 
 -1.267592576231e-05   3.019255073538e-05  -1.147751480008e-01   2.656981383441e-06   1.397620698935e-05  -9.506505964793e-02   3.742692598514e-06   6.474680467288e-06  -8.101917167923e-02 
  2.802597632061e-06   3.161071950926e-06  -7.053707191033e-02   1.893979831198e-06   1.637183400712e-06  -6.242964366559e-02   1.259229131482e-06   8.960016889280e-07  -5.597886672027e-02 
  2.616593169457e-07  -9.407787427204e-07  -5.479831253402e-02  -1.570595494400e-08  -1.512041564759e-06  -6.080456491705e-02  -1.005790256762e-06  -2.395404802085e-06  -6.821791051840e-02 
 -4.069239530958e-06  -3.472315340013e-06  -7.755870546945e-02  -1.303002593985e-05  -3.248637853365e-06  -8.960457539442e-02  -3.735237965206e-05   6.536985422362e-06  -1.055226043572e-01 
 -8.720413744791e-05   5.966569898344e-05  -1.269834118396e-01  -6.886914969942e-05   2.069905263670e-04  -1.558320106832e-01   4.250653643705e-04  -9.209643346295e-05  -1.913858556059e-01 
 -1.414143790336e-04  -1.151522752468e-03  -2.215450848045e-01  -1.414143790336e-04   1.151522752468e-03  -2.215450848045e-01   4.250653643706e-04   9.209643346344e-05  -1.913858556059e-01 
 -6.886914969930e-05  -2.069905263667e-04  -1.558320106832e-01  -8.720413744782e-05  -5.966569898319e-05  -1.269834118396e-01  -3.735237965199e-05  -6.536985422174e-06  -1.055226043572e-01 
 -1.303002593979e-05   3.248637853514e-06  -8.960457539442e-02  -4.069239530912e-06   3.472315340139e-06  -7.755870546945e-02  -1.005790256727e-06   2.395404802194e-06  -6.821791051840e-02 
 -1.570595491574e-08   1.512041564853e-06  -6.080456491705e-02   2.616593169650e-07   9.407787428030e-07  -5.479831253402e-02  -5.299677239718e-07  -5.950582870989e-07  -5.315965117461e-02 
 -1.275595518512e-06  -7.020455173178e-07  -5.858860074955e-02  -2.862859984180e-06  -5.273057889219e-07  -6.513166705941e-02  -6.097628551054e-06   7.062950584216e-07  -7.311006479429e-02 
 -1.197150995670e-05   5.188133445576e-06  -8.293262611747e-02  -1.916988347422e-05   1.762574411614e-05  -9.506505989163e-02  -1.321868778764e-05   3.969882058059e-05  -1.098577935275e-01 
  4.550453524014e-05   2.726267856497e-05  -1.269834061342e-01   1.067557635433e-04  -1.421031597204e-04  -1.441511658360e-01  -7.832469310554e-05  -1.927206654149e-04  -1.558320070714e-01 
 -7.832469310551e-05   1.927206654154e-04  -1.558320070714e-01   1.067557635434e-04   1.421031597208e-04  -1.441511658360e-01   4.550453524023e-05  -2.726267856465e-05  -1.269834061342e-01 
 -1.321868778756e-05  -3.969882058035e-05  -1.098577935275e-01  -1.916988347415e-05  -1.762574411595e-05  -9.506505989163e-02  -1.197150995663e-05  -5.188133445420e-06  -8.293262611747e-02 
 -6.097628551007e-06  -7.062950582925e-07  -7.311006479429e-02  -2.862859984141e-06   5.273057890358e-07  -6.513166705941e-02  -1.275595518478e-06   7.020455174130e-07  -5.858860074955e-02 
 -5.299677239426e-07   5.950582871846e-07  -5.315965117461e-02  -8.922101102349e-07  -1.330707911817e-07  -5.118726081646e-02  -1.608274787840e-06   1.338642176317e-07  -5.597886672034e-02 
 -2.774539592021e-06   8.871324248651e-07  -6.160103388990e-02  -4.401530721633e-06   2.688954160054e-06  -6.821791052571e-02  -5.748545756516e-06   6.315204251885e-06  -7.598684709650e-02 
 -3.808145724259e-06   1.143224724959e-05  -8.498837753051e-02   7.618817707416e-06   1.135401001149e-05  -9.506505964003e-02   2.773048577943e-05  -1.300142883169e-05  -1.055226040731e-01 
  2.180907048118e-05  -6.150618931364e-05  -1.147751499695e-01  -2.999138858305e-05  -4.675639604201e-05  -1.204177782185e-01  -2.999138858303e-05   4.675639604237e-05  -1.204177782185e-01 
  2.180907048123e-05   6.150618931396e-05  -1.147751499695e-01   2.773048577950e-05   1.300142883197e-05  -1.055226040731e-01   7.618817707493e-06  -1.135401001127e-05  -9.506505964003e-02 
 -3.808145724194e-06  -1.143224724941e-05  -8.498837753051e-02  -5.748545756456e-06  -6.315204251734e-06  -7.598684709650e-02  -4.401530721584e-06  -2.688954159927e-06  -6.821791052571e-02 
 -2.774539591977e-06  -8.871324247552e-07  -6.160103388990e-02  -1.608274787803e-06  -1.338642175352e-07  -5.597886672034e-02  -8.922101102025e-07   1.330707912685e-07  -5.118726081646e-02 
 -8.843586648128e-07   2.233546643668e-07  -4.900519475511e-02  -1.332347307301e-06   6.219357206557e-07  -5.315965117505e-02  -1.844905933720e-06   1.384624048178e-06  -5.790209158752e-02 
 -2.131452576730e-06   2.651462067949e-06  -6.329261572493e-02  -1.404511516411e-06   4.215506899894e-06  -6.934842487363e-02   1.691344943967e-06   4.606182314089e-06  -7.598684707648e-02 
  7.638378648447e-06   2.966184670016e-09  -8.293262606744e-02   1.169627374800e-05  -1.301592172501e-05  -8.960457545521e-02   3.711193000081e-06  -2.547438613732e-05  -9.506505988372e-02 
 -1.256993176702e-05  -1.468035414114e-05  -9.819825098108e-02  -1.256993176701e-05   1.468035414143e-05  -9.819825098108e-02   3.711193000119e-06   2.547438613760e-05  -9.506505988372e-02 
  1.169627374806e-05   1.301592172526e-05  -8.960457545521e-02   7.638378648503e-06  -2.966184471309e-09  -8.293262606744e-02   1.691344944027e-06  -4.606182313914e-06  -7.598684707648e-02 
 -1.404511516355e-06  -4.215506899748e-06  -6.934842487363e-02  -2.131452576681e-06  -2.651462067824e-06  -6.329261572493e-02  -1.844905933674e-06  -1.384624048064e-06  -5.790209158752e-02 
 -1.332347307264e-06  -6.219357205555e-07  -5.315965117505e-02  -8.843586647823e-07  -2.233546642776e-07  -4.900519475511e-02  -6.825935205147e-07   3.990387396767e-07  -4.672187590137e-02 
 -8.613980112236e-07   7.470266424479e-07  -5.027997765785e-02  -9.196660035184e-07   1.256326865961e-06  -5.423537162155e-02  -6.112483373085e-07   1.834367428968e-06  -5.858860075006e-02 
  4.391767755568e-07   2.066961433841e-06  -6.329261572250e-02   2.452869634657e-06   9.818653701597e-07  -6.821791051849e-02   4.662561387482e-06  -2.641479651896e-06  -7.311006479075e-02 
  4.565361410035e-06  -8.314547628797e-06  -7.755870549511e-02  -2.960771995174e-08  -1.122353262640e-05  -8.101917170982e-02  -5.864901523838e-06  -5.529878232862e-06  -8.293262607041e-02 
 -5.864901523828e-06   5.529878233108e-06  -8.293262607041e-02  -2.960771992285e-08   1.122353262663e-05  -8.101917170982e-02   4.565361410072e-06   8.314547629010e-06  -7.755870549511e-02 
  4.662561387529e-06   2.641479652081e-06  -7.311006479075e-02   2.452869634703e-06  -9.818653699935e-07  -6.821791051849e-02   4.391767756071e-07  -2.066961433694e-06  -6.329261572250e-02 
 -6.112483372650e-07  -1.834367428839e-06  -5.858860075006e-02  -9.196660034758e-07  -1.256326865847e-06  -5.423537162155e-02  -8.613980111842e-07  -7.470266423507e-07  -5.027997765785e-02 
 -6.825935204809e-07  -3.990387395882e-07  -4.672187590137e-02  -4.388189849237e-07   4.248617648394e-07  -4.442284180608e-02  -4.442322913406e-07   6.533935628715e-07  -4.744716022101e-02 
 -2.994848000236e-07   8.986852597877e-07  -5.072753512215e-02   1.190932960854e-07   1.021578766685e-06  -5.423537162115e-02   9.000212817500e-07   7.233859002012e-07  -5.790209158627e-02 
  1.902000739513e-06  -4.135466096367e-07  -6.160103388834e-02   2.502381496187e-06  -2.557675328605e-06  -6.513166706093e-02   1.731170351634e-06  -4.882422270102e-06  -6.821791052580e-02 
 -6.521002214952e-07  -5.329640768902e-06  -7.053707191451e-02  -2.997927351015e-06  -2.381600584849e-06  -7.178901067344e-02  -2.997927351009e-06   2.381600585056e-06  -7.178901067344e-02 
 -6.521002214737e-07   5.329640769100e-06  -7.053707191451e-02   1.731170351662e-06   4.882422270291e-06  -6.821791052580e-02   2.502381496226e-06   2.557675328781e-06  -6.513166706093e-02 
  1.902000739557e-06   4.135466097950e-07  -6.160103388834e-02   9.000212817917e-07  -7.233859000609e-07  -5.790209158627e-02   1.190932961237e-07  -1.021578766564e-06  -5.423537162115e-02 
 -2.994847999868e-07  -8.986852596792e-07  -5.072753512215e-02  -4.442322913052e-07  -6.533935627721e-07  -4.744716022101e-02  -4.388189848909e-07  -4.248617647523e-07  -4.442284180608e-02 
 -2.340843528173e-07   3.656670146362e-07  -4.216988896080e-02  -1.603914595319e-07   4.812711383446e-07  -4.473060012784e-02   2.766647231950e-08   5.471709387635e-07  -4.744716022092e-02 
  3.668816740853e-07   4.571441628516e-07  -5.027997765759e-02   8.305687946016e-07   5.718546977845e-08  -5.315965117463e-02   1.249242627309e-06  -7.734525039113e-07  -5.597886672020e-02 
  1.285825437118e-06  -1.924499388888e-06  -5.858860075057e-02   6.234163156762e-07  -2.849135446159e-06  -6.080456491909e-02  -6.129397426376e-07  -2.713320377202e-06  -6.242964366608e-02 
 -1.650814596614e-06  -1.136088079233e-06  -6.329261572235e-02  -1.650814596608e-06   1.136088079417e-06  -6.329261572235e-02  -6.129397426205e-07   2.713320377379e-06  -6.242964366608e-02 
  6.234163157007e-07   2.849135446327e-06  -6.080456491909e-02   1.285825437150e-06   1.924499389050e-06  -5.858860075057e-02   1.249242627345e-06   7.734525040557e-07  -5.597886672020e-02 
  8.305687946379e-07  -5.718546964945e-08  -5.315965117463e-02   3.668816741229e-07  -4.571441627310e-07  -5.027997765759e-02   2.766647235478e-08  -5.471709386572e-07  -4.744716022092e-02 
 -1.603914594988e-07  -4.812711382489e-07  -4.473060012784e-02  -2.340843527876e-07  -3.656670145507e-07  -4.216988896080e-02  -9.206037737484e-08   2.762257540966e-07  -4.000395186703e-02 
  6.376666863360e-10   3.129748079522e-07  -4.216988896078e-02   1.622430140469e-07   2.849147063290e-07  -4.442284180601e-02   3.888748912622e-07   1.300967538785e-07  -4.672187590125e-02 
  6.299399992968e-07  -2.124788201241e-07  -4.900519475501e-02   7.685672169999e-07  -7.471172309697e-07  -5.118726081655e-02   6.494576309216e-07  -1.341011827028e-06  -5.315965117506e-02 
  1.909090038553e-07  -1.693212765382e-06  -5.479831253459e-02  -4.687197442684e-07  -1.468035458969e-06  -5.597886672027e-02  -9.659368437764e-07  -5.873053297736e-07  -5.659849366261e-02 
 -9.659368437727e-07   5.873053299378e-07  -5.659849366261e-02  -4.687197442548e-07   1.468035459127e-06  -5.597886672027e-02   1.909090038770e-07   1.693212765535e-06  -5.479831253459e-02 
  6.494576309470e-07   1.341011827171e-06  -5.315965117506e-02   7.685672170304e-07   7.471172311017e-07  -5.118726081655e-02   6.299399993282e-07   2.124788202490e-07  -4.900519475501e-02 
  3.888748912950e-07  -1.300967537632e-07  -4.672187590125e-02   1.622430140788e-07  -2.849147062261e-07  -4.442284180601e-02   6.376667179146e-10  -3.129748078578e-07  -4.216988896078e-02 
 -9.206037734455e-08  -2.762257540099e-07  -4.000395186703e-02 
POINT_DATA 882

